ROOT
ATOM      1  C   UNL     1       1.006  -0.002  -0.558  0.00  0.00    +0.132 A 
ATOM      2  C   UNL     1      -1.739  -0.000  -0.059  0.00  0.00    +0.126 A 
ATOM      3  C   UNL     1       0.320   1.207  -0.436  0.00  0.00    +0.048 A 
ATOM      4  C   UNL     1       0.320  -1.209  -0.431  0.00  0.00    +0.048 A 
ATOM      5  C   UNL     1      -1.053   1.207  -0.186  0.00  0.00    +0.036 A 
ATOM      6  C   UNL     1      -1.053  -1.209  -0.182  0.00  0.00    +0.036 A 
ENDROOT
BRANCH   2   9
ATOM      7  O   UNL     1      -3.733   1.099   0.306  0.00  0.00    -0.126 OA
ATOM      8  O   UNL     1      -3.734  -1.097   0.307  0.00  0.00    -0.126 OA
ATOM      9  N   UNL     1      -3.136   0.001   0.197  0.00  0.00    +0.056 N 
ENDBRANCH   2   9
BRANCH   1  10
ATOM     10  O   UNL     1       2.345  -0.002  -0.803  0.00  0.00    -0.426 OA
BRANCH  10  12
ATOM     11  O   UNL     1       2.726   0.005   1.507  0.00  0.00    -0.251 OA
ATOM     12  C   UNL     1       3.140   0.001   0.355  0.00  0.00    +0.309 C 
ATOM     13  C   UNL     1       4.592  -0.001  -0.019  0.00  0.00    +0.136 C 
ENDBRANCH  10  12
ENDBRANCH   1  10
TORSDOF 3
