MODEL 1
REMARK VINA RESULT:     0.000      0.000      0.000
REMARK INTER + INTRA:          -0.294
REMARK INTER:                   0.000
REMARK INTRA:                  -0.294
REMARK UNBOUND:                -0.294
ROOT
ATOM      1  C   UNL     1       8.954  17.529   9.485  0.00  0.00    +0.132 A 
ATOM      2  C   UNL     1      11.061  17.750   7.670  0.00  0.00    +0.126 A 
ATOM      3  C   UNL     1      10.235  17.846   9.939  0.00  0.00    +0.048 A 
ATOM      4  C   UNL     1       8.727  17.322   8.125  0.00  0.00    +0.048 A 
ATOM      5  C   UNL     1      11.288  17.957   9.030  0.00  0.00    +0.036 A 
ATOM      6  C   UNL     1       9.780  17.432   7.217  0.00  0.00    +0.036 A 
ENDROOT
BRANCH   2   9
ATOM      7  O   UNL     1      13.278  18.145   7.175  0.00  0.00    -0.126 OA
ATOM      8  O   UNL     1      11.905  17.684   5.525  0.00  0.00    -0.126 OA
ATOM      9  N   UNL     1      12.133  17.865   6.746  0.00  0.00    +0.056 N 
ENDBRANCH   2   9
BRANCH   1  10
ATOM     10  O   UNL     1       7.927  17.419  10.372  0.00  0.00    -0.426 OA
BRANCH  10  12
ATOM     11  O   UNL     1       7.224  19.652  10.354  0.00  0.00    -0.251 OA
ATOM     12  C   UNL     1       6.982  18.455  10.285  0.00  0.00    +0.309 C 
ATOM     13  C   UNL     1       5.609  17.883  10.093  0.00  0.00    +0.136 C 
ENDBRANCH  10  12
ENDBRANCH   1  10
TORSDOF 3
ENDMDL
MODEL 2
REMARK VINA RESULT:     0.000      9.469     10.547
REMARK INTER + INTRA:          -0.294
REMARK INTER:                   0.000
REMARK INTRA:                  -0.294
REMARK UNBOUND:                -0.294
ROOT
ATOM      1  C   UNL     1       6.432  26.988   8.357  0.00  0.00    +0.132 A 
ATOM      2  C   UNL     1       8.272  27.803  10.290  0.00  0.00    +0.126 A 
ATOM      3  C   UNL     1       6.937  26.065   9.273  0.00  0.00    +0.048 A 
ATOM      4  C   UNL     1       6.846  28.318   8.407  0.00  0.00    +0.048 A 
ATOM      5  C   UNL     1       7.857  26.473  10.239  0.00  0.00    +0.036 A 
ATOM      6  C   UNL     1       7.767  28.727   9.373  0.00  0.00    +0.036 A 
ENDROOT
BRANCH   2   9
ATOM      7  O   UNL     1       9.654  27.370  12.084  0.00  0.00    -0.126 OA
ATOM      8  O   UNL     1       9.559  29.422  11.308  0.00  0.00    -0.126 OA
ATOM      9  N   UNL     1       9.207  28.218  11.275  0.00  0.00    +0.056 N 
ENDBRANCH   2   9
BRANCH   1  10
ATOM     10  O   UNL     1       5.535  26.590   7.413  0.00  0.00    -0.426 OA
BRANCH  10  12
ATOM     11  O   UNL     1       3.572  26.947   8.639  0.00  0.00    -0.251 OA
ATOM     12  C   UNL     1       4.233  27.077   7.617  0.00  0.00    +0.309 C 
ATOM     13  C   UNL     1       3.755  27.792   6.389  0.00  0.00    +0.136 C 
ENDBRANCH  10  12
ENDBRANCH   1  10
TORSDOF 3
ENDMDL
MODEL 3
REMARK VINA RESULT:     0.000      9.946     10.768
REMARK INTER + INTRA:          -0.294
REMARK INTER:                   0.000
REMARK INTRA:                  -0.294
REMARK UNBOUND:                -0.294
ROOT
ATOM      1  C   UNL     1       5.074  26.748   3.795  0.00  0.00    +0.132 A 
ATOM      2  C   UNL     1       6.737  26.351   6.000  0.00  0.00    +0.126 A 
ATOM      3  C   UNL     1       6.212  27.538   3.962  0.00  0.00    +0.048 A 
ATOM      4  C   UNL     1       4.767  25.761   4.731  0.00  0.00    +0.048 A 
ATOM      5  C   UNL     1       7.044  27.339   5.065  0.00  0.00    +0.036 A 
ATOM      6  C   UNL     1       5.598  25.562   5.834  0.00  0.00    +0.036 A 
ENDROOT
BRANCH   2   9
ATOM      7  O   UNL     1       8.599  26.874   7.256  0.00  0.00    -0.126 OA
ATOM      8  O   UNL     1       7.295  25.248   7.946  0.00  0.00    -0.126 OA
ATOM      9  N   UNL     1       7.585  26.148   7.121  0.00  0.00    +0.056 N 
ENDBRANCH   2   9
BRANCH   1  10
ATOM     10  O   UNL     1       4.262  26.944   2.720  0.00  0.00    -0.426 OA
BRANCH  10  12
ATOM     11  O   UNL     1       5.319  25.483   1.227  0.00  0.00    -0.251 OA
ATOM     12  C   UNL     1       4.309  25.910   1.771  0.00  0.00    +0.309 C 
ATOM     13  C   UNL     1       2.927  25.391   1.508  0.00  0.00    +0.136 C 
ENDBRANCH  10  12
ENDBRANCH   1  10
TORSDOF 3
ENDMDL
MODEL 4
REMARK VINA RESULT:     0.000     13.806     14.856
REMARK INTER + INTRA:          -0.294
REMARK INTER:                   0.000
REMARK INTRA:                  -0.294
REMARK UNBOUND:                -0.294
ROOT
ATOM      1  C   UNL     1      13.400  31.023   4.397  0.00  0.00    +0.132 A 
ATOM      2  C   UNL     1      11.898  29.830   2.371  0.00  0.00    +0.126 A 
ATOM      3  C   UNL     1      13.520  29.654   4.153  0.00  0.00    +0.048 A 
ATOM      4  C   UNL     1      12.529  31.794   3.629  0.00  0.00    +0.048 A 
ATOM      5  C   UNL     1      12.769  29.058   3.139  0.00  0.00    +0.036 A 
ATOM      6  C   UNL     1      11.777  31.198   2.616  0.00  0.00    +0.036 A 
ENDROOT
BRANCH   2   9
ATOM      7  O   UNL     1      11.252  27.989   1.141  0.00  0.00    -0.126 OA
ATOM      8  O   UNL     1      10.364  29.938   0.653  0.00  0.00    -0.126 OA
ATOM      9  N   UNL     1      11.134  29.223   1.339  0.00  0.00    +0.056 N 
ENDBRANCH   2   9
BRANCH   1  10
ATOM     10  O   UNL     1      14.133  31.604   5.386  0.00  0.00    -0.426 OA
BRANCH  10  12
ATOM     11  O   UNL     1      16.035  32.140   4.130  0.00  0.00    -0.251 OA
ATOM     12  C   UNL     1      15.154  32.449   4.923  0.00  0.00    +0.309 C 
ATOM     13  C   UNL     1      15.017  33.807   5.543  0.00  0.00    +0.136 C 
ENDBRANCH  10  12
ENDBRANCH   1  10
TORSDOF 3
ENDMDL
MODEL 5
REMARK VINA RESULT:     0.000      3.162      4.201
REMARK INTER + INTRA:          -0.294
REMARK INTER:                   0.000
REMARK INTRA:                  -0.294
REMARK UNBOUND:                -0.294
ROOT
ATOM      1  C   UNL     1      12.716  18.326   7.612  0.00  0.00    +0.132 A 
ATOM      2  C   UNL     1      12.888  19.030   4.918  0.00  0.00    +0.126 A 
ATOM      3  C   UNL     1      13.868  18.945   7.126  0.00  0.00    +0.048 A 
ATOM      4  C   UNL     1      11.651  18.059   6.753  0.00  0.00    +0.048 A 
ATOM      5  C   UNL     1      13.953  19.297   5.778  0.00  0.00    +0.036 A 
ATOM      6  C   UNL     1      11.737  18.410   5.405  0.00  0.00    +0.036 A 
ENDROOT
BRANCH   2   9
ATOM      7  O   UNL     1      14.023  19.939   3.129  0.00  0.00    -0.126 OA
ATOM      8  O   UNL     1      12.002  19.150   2.793  0.00  0.00    -0.126 OA
ATOM      9  N   UNL     1      12.976  19.391   3.547  0.00  0.00    +0.056 N 
ENDBRANCH   2   9
BRANCH   1  10
ATOM     10  O   UNL     1      12.633  17.981   8.926  0.00  0.00    -0.426 OA
BRANCH  10  12
ATOM     11  O   UNL     1      11.732  19.981   9.745  0.00  0.00    -0.251 OA
ATOM     12  C   UNL     1      11.728  18.759   9.668  0.00  0.00    +0.309 C 
ATOM     13  C   UNL     1      10.739  17.873  10.364  0.00  0.00    +0.136 C 
ENDBRANCH  10  12
ENDBRANCH   1  10
TORSDOF 3
ENDMDL
MODEL 6
REMARK VINA RESULT:     0.000     16.403     17.456
REMARK INTER + INTRA:          -0.294
REMARK INTER:                   0.000
REMARK INTRA:                  -0.294
REMARK UNBOUND:                -0.294
ROOT
ATOM      1  C   UNL     1      17.363  32.150  13.044  0.00  0.00    +0.132 A 
ATOM      2  C   UNL     1      18.930  32.130  15.352  0.00  0.00    +0.126 A 
ATOM      3  C   UNL     1      18.723  31.848  12.962  0.00  0.00    +0.048 A 
ATOM      4  C   UNL     1      16.788  32.443  14.280  0.00  0.00    +0.048 A 
ATOM      5  C   UNL     1      19.506  31.837  14.117  0.00  0.00    +0.036 A 
ATOM      6  C   UNL     1      17.571  32.433  15.435  0.00  0.00    +0.036 A 
ENDROOT
BRANCH   2   9
ATOM      7  O   UNL     1      20.949  31.850  16.430  0.00  0.00    -0.126 OA
ATOM      8  O   UNL     1      19.187  32.374  17.631  0.00  0.00    -0.126 OA
ATOM      9  N   UNL     1      19.728  32.117  16.528  0.00  0.00    +0.056 N 
ENDBRANCH   2   9
BRANCH   1  10
ATOM     10  O   UNL     1      16.600  32.162  11.917  0.00  0.00    -0.426 OA
BRANCH  10  12
ATOM     11  O   UNL     1      15.952  29.912  11.923  0.00  0.00    -0.251 OA
ATOM     12  C   UNL     1      15.681  31.102  11.836  0.00  0.00    +0.309 C 
ATOM     13  C   UNL     1      14.297  31.638  11.623  0.00  0.00    +0.136 C 
ENDBRANCH  10  12
ENDBRANCH   1  10
TORSDOF 3
ENDMDL
MODEL 7
REMARK VINA RESULT:     0.000      8.259      9.035
REMARK INTER + INTRA:          -0.294
REMARK INTER:                   0.000
REMARK INTRA:                  -0.294
REMARK UNBOUND:                -0.294
ROOT
ATOM      1  C   UNL     1      13.037  25.273   4.457  0.00  0.00    +0.132 A 
ATOM      2  C   UNL     1      15.041  23.380   4.884  0.00  0.00    +0.126 A 
ATOM      3  C   UNL     1      12.915  23.993   3.914  0.00  0.00    +0.048 A 
ATOM      4  C   UNL     1      14.160  25.606   5.212  0.00  0.00    +0.048 A 
ATOM      5  C   UNL     1      13.918  23.047   4.129  0.00  0.00    +0.036 A 
ATOM      6  C   UNL     1      15.163  24.660   5.426  0.00  0.00    +0.036 A 
ENDROOT
BRANCH   2   9
ATOM      7  O   UNL     1      15.935  21.274   4.600  0.00  0.00    -0.126 OA
ATOM      8  O   UNL     1      17.058  22.734   5.796  0.00  0.00    -0.126 OA
ATOM      9  N   UNL     1      16.061  22.416   5.104  0.00  0.00    +0.056 N 
ENDBRANCH   2   9
BRANCH   1  10
ATOM     10  O   UNL     1      12.059  26.196   4.246  0.00  0.00    -0.426 OA
BRANCH  10  12
ATOM     11  O   UNL     1      10.715  25.695   6.096  0.00  0.00    -0.251 OA
ATOM     12  C   UNL     1      11.304  26.503   5.390  0.00  0.00    +0.309 C 
ATOM     13  C   UNL     1      11.317  27.983   5.633  0.00  0.00    +0.136 C 
ENDBRANCH  10  12
ENDBRANCH   1  10
TORSDOF 3
ENDMDL
MODEL 8
REMARK VINA RESULT:     0.000     12.604     14.227
REMARK INTER + INTRA:          -0.294
REMARK INTER:                   0.000
REMARK INTRA:                  -0.294
REMARK UNBOUND:                -0.294
ROOT
ATOM      1  C   UNL     1      18.033  29.871   7.260  0.00  0.00    +0.132 A 
ATOM      2  C   UNL     1      17.273  27.326   8.113  0.00  0.00    +0.126 A 
ATOM      3  C   UNL     1      19.000  28.887   7.467  0.00  0.00    +0.048 A 
ATOM      4  C   UNL     1      16.687  29.583   7.480  0.00  0.00    +0.048 A 
ATOM      5  C   UNL     1      18.619  27.614   7.893  0.00  0.00    +0.036 A 
ATOM      6  C   UNL     1      16.306  28.310   7.907  0.00  0.00    +0.036 A 
ENDROOT
BRANCH   2   9
ATOM      7  O   UNL     1      17.772  25.161   8.731  0.00  0.00    -0.126 OA
ATOM      8  O   UNL     1      15.668  25.789   8.728  0.00  0.00    -0.126 OA
ATOM      9  N   UNL     1      16.886  26.029   8.545  0.00  0.00    +0.056 N 
ENDBRANCH   2   9
BRANCH   1  10
ATOM     10  O   UNL     1      18.404  31.113   6.846  0.00  0.00    -0.426 OA
BRANCH  10  12
ATOM     11  O   UNL     1      18.313  30.741   4.536  0.00  0.00    -0.251 OA
ATOM     12  C   UNL     1      18.037  31.411   5.523  0.00  0.00    +0.309 C 
ATOM     13  C   UNL     1      17.245  32.683   5.484  0.00  0.00    +0.136 C 
ENDBRANCH  10  12
ENDBRANCH   1  10
TORSDOF 3
ENDMDL
MODEL 9
REMARK VINA RESULT:     0.000     12.205     13.551
REMARK INTER + INTRA:          -0.294
REMARK INTER:                   0.000
REMARK INTRA:                  -0.294
REMARK UNBOUND:                -0.294
ROOT
ATOM      1  C   UNL     1      15.527  29.900   8.042  0.00  0.00    +0.132 A 
ATOM      2  C   UNL     1      12.795  29.447   7.699  0.00  0.00    +0.126 A 
ATOM      3  C   UNL     1      14.674  30.965   7.749  0.00  0.00    +0.048 A 
ATOM      4  C   UNL     1      15.014  28.609   8.164  0.00  0.00    +0.048 A 
ATOM      5  C   UNL     1      13.308  30.737   7.578  0.00  0.00    +0.036 A 
ATOM      6  C   UNL     1      13.648  28.381   7.992  0.00  0.00    +0.036 A 
ENDROOT
BRANCH   2   9
ATOM      7  O   UNL     1      10.657  30.187   7.256  0.00  0.00    -0.126 OA
ATOM      8  O   UNL     1      10.962  28.048   7.650  0.00  0.00    -0.126 OA
ATOM      9  N   UNL     1      11.404  29.216   7.527  0.00  0.00    +0.056 N 
ENDBRANCH   2   9
BRANCH   1  10
ATOM     10  O   UNL     1      16.859  30.122   8.208  0.00  0.00    -0.426 OA
BRANCH  10  12
ATOM     11  O   UNL     1      16.847  30.558  10.508  0.00  0.00    -0.251 OA
ATOM     12  C   UNL     1      17.304  29.978   9.532  0.00  0.00    +0.309 C 
ATOM     13  C   UNL     1      18.438  28.998   9.589  0.00  0.00    +0.136 C 
ENDBRANCH  10  12
ENDBRANCH   1  10
TORSDOF 3
ENDMDL
