MODEL 1
REMARK VINA RESULT:     0.000      0.000      0.000
REMARK INTER + INTRA:          -0.294
REMARK INTER:                   0.000
REMARK INTRA:                  -0.294
REMARK UNBOUND:                -0.294
ROOT
ATOM      1  C   UNL     1      15.450  23.862   9.722  0.00  0.00    +0.132 A 
ATOM      2  C   UNL     1      15.186  26.606  10.154  0.00  0.00    +0.126 A 
ATOM      3  C   UNL     1      14.327  24.359  10.385  0.00  0.00    +0.048 A 
ATOM      4  C   UNL     1      16.440  24.736   9.276  0.00  0.00    +0.048 A 
ATOM      5  C   UNL     1      14.196  25.732  10.600  0.00  0.00    +0.036 A 
ATOM      6  C   UNL     1      16.310  26.109   9.492  0.00  0.00    +0.036 A 
ENDROOT
BRANCH   2   9
ATOM      7  O   UNL     1      14.040  28.427  10.982  0.00  0.00    -0.126 OA
ATOM      8  O   UNL     1      15.948  28.773   9.951  0.00  0.00    -0.126 OA
ATOM      9  N   UNL     1      15.051  28.003  10.373  0.00  0.00    +0.056 N 
ENDBRANCH   2   9
BRANCH   1  10
ATOM     10  O   UNL     1      15.578  22.523   9.513  0.00  0.00    -0.426 OA
BRANCH  10  12
ATOM     11  O   UNL     1      14.481  22.396   7.449  0.00  0.00    -0.251 OA
ATOM     12  C   UNL     1      15.435  22.136   8.170  0.00  0.00    +0.309 C 
ATOM     13  C   UNL     1      16.632  21.347   7.733  0.00  0.00    +0.136 C 
ENDBRANCH  10  12
ENDBRANCH   1  10
TORSDOF 3
ENDMDL
MODEL 2
REMARK VINA RESULT:     0.000     10.202     11.108
REMARK INTER + INTRA:          -0.294
REMARK INTER:                   0.000
REMARK INTRA:                  -0.294
REMARK UNBOUND:                -0.294
ROOT
ATOM      1  C   UNL     1       6.514  21.690  12.524  0.00  0.00    +0.132 A 
ATOM      2  C   UNL     1       5.912  22.138  15.211  0.00  0.00    +0.126 A 
ATOM      3  C   UNL     1       7.266  21.067  13.520  0.00  0.00    +0.048 A 
ATOM      4  C   UNL     1       5.462  22.537  12.870  0.00  0.00    +0.048 A 
ATOM      5  C   UNL     1       6.964  21.291  14.864  0.00  0.00    +0.036 A 
ATOM      6  C   UNL     1       5.160  22.762  14.214  0.00  0.00    +0.036 A 
ENDROOT
BRANCH   2   9
ATOM      7  O   UNL     1       6.296  21.799  17.459  0.00  0.00    -0.126 OA
ATOM      8  O   UNL     1       4.647  23.124  16.868  0.00  0.00    -0.126 OA
ATOM      9  N   UNL     1       5.604  22.364  16.579  0.00  0.00    +0.056 N 
ENDBRANCH   2   9
BRANCH   1  10
ATOM     10  O   UNL     1       6.809  21.472  11.213  0.00  0.00    -0.426 OA
BRANCH  10  12
ATOM     11  O   UNL     1       5.451  19.597  10.866  0.00  0.00    -0.251 OA
ATOM     12  C   UNL     1       5.853  20.703  10.529  0.00  0.00    +0.309 C 
ATOM     13  C   UNL     1       5.383  21.435   9.308  0.00  0.00    +0.136 C 
ENDBRANCH  10  12
ENDBRANCH   1  10
TORSDOF 3
ENDMDL
MODEL 3
REMARK VINA RESULT:     0.000      6.537      8.718
REMARK INTER + INTRA:          -0.294
REMARK INTER:                   0.000
REMARK INTRA:                  -0.294
REMARK UNBOUND:                -0.294
ROOT
ATOM      1  C   UNL     1      13.458  31.866  12.651  0.00  0.00    +0.132 A 
ATOM      2  C   UNL     1      14.123  33.022  15.102  0.00  0.00    +0.126 A 
ATOM      3  C   UNL     1      13.351  33.246  12.823  0.00  0.00    +0.048 A 
ATOM      4  C   UNL     1      13.896  31.064  13.704  0.00  0.00    +0.048 A 
ATOM      5  C   UNL     1      13.684  33.824  14.049  0.00  0.00    +0.036 A 
ATOM      6  C   UNL     1      14.229  31.641  14.930  0.00  0.00    +0.036 A 
ENDROOT
BRANCH   2   9
ATOM      7  O   UNL     1      14.357  34.854  16.483  0.00  0.00    -0.126 OA
ATOM      8  O   UNL     1      14.861  32.871  17.281  0.00  0.00    -0.126 OA
ATOM      9  N   UNL     1      14.463  33.611  16.348  0.00  0.00    +0.056 N 
ENDBRANCH   2   9
BRANCH   1  10
ATOM     10  O   UNL     1      13.131  31.302  11.456  0.00  0.00    -0.426 OA
BRANCH  10  12
ATOM     11  O   UNL     1      15.230  31.448  10.428  0.00  0.00    -0.251 OA
ATOM     12  C   UNL     1      14.231  30.810  10.734  0.00  0.00    +0.309 C 
ATOM     13  C   UNL     1      14.012  29.369  10.384  0.00  0.00    +0.136 C 
ENDBRANCH  10  12
ENDBRANCH   1  10
TORSDOF 3
ENDMDL
MODEL 4
REMARK VINA RESULT:     0.000      6.763      7.866
REMARK INTER + INTRA:          -0.294
REMARK INTER:                   0.000
REMARK INTRA:                  -0.294
REMARK UNBOUND:                -0.294
ROOT
ATOM      1  C   UNL     1       9.927  22.071   5.059  0.00  0.00    +0.132 A 
ATOM      2  C   UNL     1      12.120  23.527   4.135  0.00  0.00    +0.126 A 
ATOM      3  C   UNL     1       9.811  23.444   4.839  0.00  0.00    +0.048 A 
ATOM      4  C   UNL     1      11.140  21.426   4.817  0.00  0.00    +0.048 A 
ATOM      5  C   UNL     1      10.908  24.171   4.376  0.00  0.00    +0.036 A 
ATOM      6  C   UNL     1      12.237  22.154   4.356  0.00  0.00    +0.036 A 
ENDROOT
BRANCH   2   9
ATOM      7  O   UNL     1      13.110  25.501   3.472  0.00  0.00    -0.126 OA
ATOM      8  O   UNL     1      14.318  23.667   3.449  0.00  0.00    -0.126 OA
ATOM      9  N   UNL     1      13.236  24.267   3.662  0.00  0.00    +0.056 N 
ENDBRANCH   2   9
BRANCH   1  10
ATOM     10  O   UNL     1       8.857  21.361   5.511  0.00  0.00    -0.426 OA
BRANCH  10  12
ATOM     11  O   UNL     1       7.919  20.805   3.440  0.00  0.00    -0.251 OA
ATOM     12  C   UNL     1       8.302  20.491   4.559  0.00  0.00    +0.309 C 
ATOM     13  C   UNL     1       8.241  19.098   5.111  0.00  0.00    +0.136 C 
ENDBRANCH  10  12
ENDBRANCH   1  10
TORSDOF 3
ENDMDL
MODEL 5
REMARK VINA RESULT:     0.000      6.323      7.518
REMARK INTER + INTRA:          -0.294
REMARK INTER:                   0.000
REMARK INTRA:                  -0.294
REMARK UNBOUND:                -0.294
ROOT
ATOM      1  C   UNL     1      12.139  20.332   9.898  0.00  0.00    +0.132 A 
ATOM      2  C   UNL     1      11.104  20.310   7.307  0.00  0.00    +0.126 A 
ATOM      3  C   UNL     1      11.423  21.432   9.423  0.00  0.00    +0.048 A 
ATOM      4  C   UNL     1      12.337  19.222   9.078  0.00  0.00    +0.048 A 
ATOM      5  C   UNL     1      10.906  21.420   8.127  0.00  0.00    +0.036 A 
ATOM      6  C   UNL     1      11.821  19.210   7.781  0.00  0.00    +0.036 A 
ENDROOT
BRANCH   2   9
ATOM      7  O   UNL     1       9.942  21.300   5.579  0.00  0.00    -0.126 OA
ATOM      8  O   UNL     1      10.758  19.285   5.271  0.00  0.00    -0.126 OA
ATOM      9  N   UNL     1      10.576  20.298   5.989  0.00  0.00    +0.056 N 
ENDBRANCH   2   9
BRANCH   1  10
ATOM     10  O   UNL     1      12.644  20.344  11.162  0.00  0.00    -0.426 OA
BRANCH  10  12
ATOM     11  O   UNL     1      10.794  19.440  12.276  0.00  0.00    -0.251 OA
ATOM     12  C   UNL     1      11.997  19.467  12.047  0.00  0.00    +0.309 C 
ATOM     13  C   UNL     1      12.997  18.551  12.686  0.00  0.00    +0.136 C 
ENDBRANCH  10  12
ENDBRANCH   1  10
TORSDOF 3
ENDMDL
MODEL 6
REMARK VINA RESULT:     0.000      6.617      7.272
REMARK INTER + INTRA:          -0.294
REMARK INTER:                   0.000
REMARK INTRA:                  -0.294
REMARK UNBOUND:                -0.294
ROOT
ATOM      1  C   UNL     1      11.428  28.869   4.227  0.00  0.00    +0.132 A 
ATOM      2  C   UNL     1      11.647  29.853   6.829  0.00  0.00    +0.126 A 
ATOM      3  C   UNL     1      11.770  30.205   4.442  0.00  0.00    +0.048 A 
ATOM      4  C   UNL     1      11.194  28.026   5.313  0.00  0.00    +0.048 A 
ATOM      5  C   UNL     1      11.880  30.696   5.743  0.00  0.00    +0.036 A 
ATOM      6  C   UNL     1      11.303  28.518   6.615  0.00  0.00    +0.036 A 
ENDROOT
BRANCH   2   9
ATOM      7  O   UNL     1      12.063  31.559   8.324  0.00  0.00    -0.126 OA
ATOM      8  O   UNL     1      11.555  29.575   9.116  0.00  0.00    -0.126 OA
ATOM      9  N   UNL     1      11.760  30.353   8.153  0.00  0.00    +0.056 N 
ENDBRANCH   2   9
BRANCH   1  10
ATOM     10  O   UNL     1      11.320  28.390   2.958  0.00  0.00    -0.426 OA
BRANCH  10  12
ATOM     11  O   UNL     1      13.542  27.719   2.658  0.00  0.00    -0.251 OA
ATOM     12  C   UNL     1      12.340  27.497   2.593  0.00  0.00    +0.309 C 
ATOM     13  C   UNL     1      11.746  26.211   2.103  0.00  0.00    +0.136 C 
ENDBRANCH  10  12
ENDBRANCH   1  10
TORSDOF 3
ENDMDL
MODEL 7
REMARK VINA RESULT:     0.000      8.508      9.465
REMARK INTER + INTRA:          -0.294
REMARK INTER:                   0.000
REMARK INTRA:                  -0.294
REMARK UNBOUND:                -0.294
ROOT
ATOM      1  C   UNL     1       8.439  25.407   4.989  0.00  0.00    +0.132 A 
ATOM      2  C   UNL     1       6.514  24.078   6.510  0.00  0.00    +0.126 A 
ATOM      3  C   UNL     1       8.588  25.311   6.373  0.00  0.00    +0.048 A 
ATOM      4  C   UNL     1       7.328  24.839   4.366  0.00  0.00    +0.048 A 
ATOM      5  C   UNL     1       7.625  24.645   7.133  0.00  0.00    +0.036 A 
ATOM      6  C   UNL     1       6.365  24.175   5.126  0.00  0.00    +0.036 A 
ENDROOT
BRANCH   2   9
ATOM      7  O   UNL     1       5.685  23.332   8.528  0.00  0.00    -0.126 OA
ATOM      8  O   UNL     1       4.549  22.887   6.702  0.00  0.00    -0.126 OA
ATOM      9  N   UNL     1       5.536  23.400   7.284  0.00  0.00    +0.056 N 
ENDBRANCH   2   9
BRANCH   1  10
ATOM     10  O   UNL     1       9.378  26.057   4.248  0.00  0.00    -0.426 OA
BRANCH  10  12
ATOM     11  O   UNL     1      10.793  24.240   3.825  0.00  0.00    -0.251 OA
ATOM     12  C   UNL     1      10.156  25.212   3.440  0.00  0.00    +0.309 C 
ATOM     13  C   UNL     1      10.100  25.671   2.013  0.00  0.00    +0.136 C 
ENDBRANCH  10  12
ENDBRANCH   1  10
TORSDOF 3
ENDMDL
MODEL 8
REMARK VINA RESULT:     0.000      3.840      6.345
REMARK INTER + INTRA:          -0.294
REMARK INTER:                   0.000
REMARK INTRA:                  -0.294
REMARK UNBOUND:                -0.294
ROOT
ATOM      1  C   UNL     1      12.023  26.665   8.178  0.00  0.00    +0.132 A 
ATOM      2  C   UNL     1      12.219  23.919   8.630  0.00  0.00    +0.126 A 
ATOM      3  C   UNL     1      11.373  25.770   7.327  0.00  0.00    +0.048 A 
ATOM      4  C   UNL     1      12.770  26.188   9.253  0.00  0.00    +0.048 A 
ATOM      5  C   UNL     1      11.472  24.397   7.554  0.00  0.00    +0.036 A 
ATOM      6  C   UNL     1      12.869  24.814   9.480  0.00  0.00    +0.036 A 
ENDROOT
BRANCH   2   9
ATOM      7  O   UNL     1      11.731  21.734   8.080  0.00  0.00    -0.126 OA
ATOM      8  O   UNL     1      12.987  22.113   9.841  0.00  0.00    -0.126 OA
ATOM      9  N   UNL     1      12.317  22.521   8.861  0.00  0.00    +0.056 N 
ENDBRANCH   2   9
BRANCH   1  10
ATOM     10  O   UNL     1      11.928  28.005   7.955  0.00  0.00    -0.426 OA
BRANCH  10  12
ATOM     11  O   UNL     1      10.002  28.423   9.219  0.00  0.00    -0.251 OA
ATOM     12  C   UNL     1      11.155  28.691   8.907  0.00  0.00    +0.309 C 
ATOM     13  C   UNL     1      11.949  29.817   9.497  0.00  0.00    +0.136 C 
ENDBRANCH  10  12
ENDBRANCH   1  10
TORSDOF 3
ENDMDL
MODEL 9
REMARK VINA RESULT:     0.000      4.619      6.845
REMARK INTER + INTRA:          -0.294
REMARK INTER:                   0.000
REMARK INTRA:                  -0.294
REMARK UNBOUND:                -0.294
ROOT
ATOM      1  C   UNL     1      15.268  27.391   6.091  0.00  0.00    +0.132 A 
ATOM      2  C   UNL     1      14.204  25.429   4.416  0.00  0.00    +0.126 A 
ATOM      3  C   UNL     1      15.300  27.563   4.706  0.00  0.00    +0.048 A 
ATOM      4  C   UNL     1      14.704  26.238   6.637  0.00  0.00    +0.048 A 
ATOM      5  C   UNL     1      14.768  26.581   3.869  0.00  0.00    +0.036 A 
ATOM      6  C   UNL     1      14.173  25.257   5.800  0.00  0.00    +0.036 A 
ENDROOT
BRANCH   2   9
ATOM      7  O   UNL     1      13.702  24.605   2.321  0.00  0.00    -0.126 OA
ATOM      8  O   UNL     1      13.155  23.404   4.076  0.00  0.00    -0.126 OA
ATOM      9  N   UNL     1      13.661  24.432   3.563  0.00  0.00    +0.056 N 
ENDBRANCH   2   9
BRANCH   1  10
ATOM     10  O   UNL     1      15.788  28.348   6.907  0.00  0.00    -0.426 OA
BRANCH  10  12
ATOM     11  O   UNL     1      13.863  29.654   7.168  0.00  0.00    -0.251 OA
ATOM     12  C   UNL     1      14.826  29.062   7.639  0.00  0.00    +0.309 C 
ATOM     13  C   UNL     1      15.145  29.001   9.103  0.00  0.00    +0.136 C 
ENDBRANCH  10  12
ENDBRANCH   1  10
TORSDOF 3
ENDMDL
